 Gaussian 16, Revision B.01,
 Gaussian 16:  ES64L-G16RevB.01 20-Dec-2017

 ----------------------------------------------------------------------
 #p td=(nstates=5,singlets) pbe1pbe/6-311++G(2df,2pd) pop=(mk,full) gfi
 nput density=current
 ----------------------------------------------------------------------

 ----------------------------
 Pyridine singlet excitations
 ----------------------------
 Symbolic Z-matrix:
 Charge =  0 Multiplicity = 1

                         Standard orientation:
 ---------------------------------------------------------------------
 Center     Atomic      Atomic             Coordinates (Angstroms)
 Number     Number       Type             X           Y           Z
 ---------------------------------------------------------------------
      1          6           0        0.000000    1.135230    0.718303
      2          6           0       -0.000000   -1.135230    0.718303
      3          6           0        0.000000   -1.190955   -0.668348
      4          6           0        0.000000   -0.000000   -1.376270
      5          6           0        0.000000    1.190955   -0.668348
      6          1           0        0.000000    2.050814    1.302241
      7          1           0       -0.000000   -2.050814    1.302241
      8          1           0        0.000000   -2.147134   -1.176156
      9          1           0        0.000000   -0.000000   -2.459763
     10          1           0        0.000000    2.147134   -1.176156
     11          7           0        0.000000    0.000000    1.409393
 ---------------------------------------------------------------------

 SCF Done:  E(RPBE1PBE) =  -248.064416351     A.U. after   11 cycles

 Excitation energies and oscillator strengths:

 Excited State   1:      Singlet-B1     4.8530 eV  255.48 nm  f=0.0041  <S**2>=0.000
      21 -> 22         0.70430
 This state for optimization and/or second-order correction.
 Total Energy, E(TD-HF/TD-DFT) =  -247.886071426
 Copying the excited state density for this state as the 1-particle RhoCI density.

 Excited State   2:      Singlet-A2     5.1926 eV  238.77 nm  f=0.0000  <S**2>=0.000
      21 -> 23         0.70573

 Excited State   3:      Singlet-B2     5.6350 eV  220.03 nm  f=0.0437  <S**2>=0.000
      19 -> 23        -0.34636
      20 -> 22         0.61495

 Excited State   4:      Singlet-A1     6.4084 eV  193.47 nm  f=0.0184  <S**2>=0.000
      19 -> 22         0.40066
      20 -> 23         0.57118

 Excited State   5:      Singlet-A1     6.5353 eV  189.72 nm  f=0.0026  <S**2>=0.000
      21 -> 24         0.68301
      21 -> 26         0.13971

 The electronic state is 1-A1.
 Alpha  occ. eigenvalues --  -14.38117 -10.26014 -10.26014 -10.24802 -10.23744
 Alpha  occ. eigenvalues --  -10.23741  -0.97858  -0.83692  -0.79167  -0.65587
 Alpha  occ. eigenvalues --   -0.65342  -0.55246  -0.50343  -0.48824  -0.44683
 Alpha  occ. eigenvalues --   -0.42296  -0.42251  -0.38024  -0.30901  -0.28250
 Alpha  occ. eigenvalues --   -0.27369
 Alpha virt. eigenvalues --   -0.03268  -0.01941  -0.00052   0.01620   0.02330
 Alpha virt. eigenvalues --    0.04207   0.04959   0.06180   0.06850   0.09341
 Alpha virt. eigenvalues --    0.09372   0.09379   0.10271   0.11788   0.12409

 Mulliken charges:
               1
     1  C   -0.084930
     2  C   -0.084930
     3  C    0.034555
     4  C   -0.181657
     5  C    0.034555
     6  H    0.086609
     7  H    0.086609
     8  H    0.061768
     9  H    0.055002
    10  H    0.061768
    11  N   -0.069347
 Sum of Mulliken charges =  -0.00000

 Dipole moment (field-independent basis, Debye):
    X=             -0.0000    Y=              0.0000    Z=              0.4080  Tot=              0.4080
 Quadrupole moment (field-independent basis, Debye-Ang):
   XX=            -39.9925   YY=            -30.0076   ZZ=            -33.0205
   XY=             -0.0000   XZ=             -0.0000   YZ=              0.0000

 ESP charges:
               1
     1  C   -0.077171
     2  C   -0.077171
     3  C   -0.279829
     4  C   -0.021931
     5  C   -0.279829
     6  H    0.131416
     7  H    0.131416
     8  H    0.176663
     9  H    0.079701
    10  H    0.176663
    11  N    0.040069
 Sum of ESP charges =   0.00000

 Normal termination of Gaussian 16 at Fri Dec 20 18:20:57 2019.
